REMARK SMILES CCC(CC)COC(=O)[C@H](C)N[P@](=O)(OC[C@H]1O[C@@](C#N)(c2ccc3c(N)ncnn23)[C@H](O)[C@@H]1O)Oc1ccccc1
REMARK SMILES IDX 12 1 13 3 14 4 15 5 16 6 17 7 18 8 34 9 19 10 32 11 35 12
REMARK SMILES IDX 22 14 31 15 23 16 30 17 25 18 24 19 29 20 26 21 28 22 27 23
REMARK SMILES IDX 20 26 21 27 33 28 36 30 37 31 38 32 42 33 39 34 41 35 40 36
REMARK SMILES IDX 10 37 11 38 8 39 9 40 7 41 6 42 3 43 2 44 1 45 4 46 5 47
REMARK H PARENT 12 2 35 13 27 24 27 25 33 29
ROOT
ATOM      1  N   UNL     1       1.978   0.374   0.277  1.00  0.00    -0.198 NA
ATOM      2  H   UNL     1       1.771   0.795   1.181  1.00  0.00     0.137 HD
ENDROOT
BRANCH   1   3
ATOM      3  P   UNL     1       0.719   0.110  -0.767  1.00  0.00     0.459 P 
ATOM      4  O   UNL     1       1.057  -0.466  -2.119  1.00  0.00    -0.229 OA
BRANCH   3   5
ATOM      5  O   UNL     1      -0.076   1.522  -0.934  1.00  0.00    -0.285 OA
BRANCH   5   6
ATOM      6  C   UNL     1      -0.655   2.155   0.194  1.00  0.00     0.208 C 
BRANCH   6   7
ATOM      7  C   UNL     1      -1.879   2.945  -0.253  1.00  0.00     0.178 C 
ATOM      8  O   UNL     1      -2.838   2.015  -0.798  1.00  0.00    -0.344 OA
ATOM      9  C   UNL     1      -2.585   3.657   0.888  1.00  0.00     0.179 C 
ATOM     10  C   UNL     1      -3.960   1.843   0.106  1.00  0.00     0.225 C 
ATOM     11  C   UNL     1      -3.530   2.582   1.390  1.00  0.00     0.198 C 
BRANCH   9  12
ATOM     12  O   UNL     1      -3.330   4.756   0.368  1.00  0.00    -0.387 OA
ATOM     13  H   UNL     1      -2.692   5.395   0.008  1.00  0.00     0.211 HD
ENDBRANCH   9  12
BRANCH  10  14
ATOM     14  C   UNL     1      -4.218   0.357   0.347  1.00  0.00     0.092 A 
ATOM     15  N   UNL     1      -3.901  -0.599  -0.583  1.00  0.00    -0.228 N 
ATOM     16  C   UNL     1      -4.768  -0.281   1.438  1.00  0.00     0.030 A 
ATOM     17  N   UNL     1      -3.340  -0.391  -1.798  1.00  0.00    -0.156 NA
ATOM     18  C   UNL     1      -4.242  -1.835  -0.100  1.00  0.00     0.107 A 
ATOM     19  C   UNL     1      -4.784  -1.670   1.156  1.00  0.00     0.034 A 
ATOM     20  C   UNL     1      -3.150  -1.486  -2.479  1.00  0.00     0.247 A 
ATOM     21  C   UNL     1      -3.995  -2.995  -0.923  1.00  0.00     0.151 A 
ATOM     22  N   UNL     1      -3.452  -2.780  -2.095  1.00  0.00    -0.216 NA
BRANCH  21  23
ATOM     23  N   UNL     1      -4.308  -4.269  -0.513  1.00  0.00    -0.382 N 
ATOM     24  H   UNL     1      -4.727  -4.456   0.392  1.00  0.00     0.158 HD
ATOM     25  H   UNL     1      -4.123  -5.068  -1.110  1.00  0.00     0.158 HD
ENDBRANCH  21  23
ENDBRANCH  10  14
BRANCH  10  26
ATOM     26  C   UNL     1      -5.142   2.456  -0.536  1.00  0.00     0.107 C 
ATOM     27  N   UNL     1      -6.069   2.937  -1.040  1.00  0.00    -0.195 NA
ENDBRANCH  10  26
BRANCH  11  28
ATOM     28  O   UNL     1      -4.603   3.107   2.147  1.00  0.00    -0.386 OA
ATOM     29  H   UNL     1      -4.220   3.626   2.876  1.00  0.00     0.211 HD
ENDBRANCH  11  28
ENDBRANCH   6   7
ENDBRANCH   5   6
ENDBRANCH   3   5
BRANCH   3  30
ATOM     30  O   UNL     1      -0.389  -0.777   0.019  1.00  0.00    -0.413 OA
BRANCH  30  31
ATOM     31  C   UNL     1      -0.181  -2.023   0.546  1.00  0.00     0.130 A 
ATOM     32  C   UNL     1       0.745  -2.884  -0.043  1.00  0.00     0.047 A 
ATOM     33  C   UNL     1      -0.895  -2.432   1.672  1.00  0.00     0.047 A 
ATOM     34  C   UNL     1       0.957  -4.154   0.494  1.00  0.00     0.004 A 
ATOM     35  C   UNL     1      -0.683  -3.702   2.209  1.00  0.00     0.004 A 
ATOM     36  C   UNL     1       0.243  -4.563   1.621  1.00  0.00     0.000 A 
ENDBRANCH  30  31
ENDBRANCH   3  30
ENDBRANCH   1   3
BRANCH   1  37
ATOM     37  C   UNL     1       3.228   0.906  -0.262  1.00  0.00     0.172 C 
ATOM     38  C   UNL     1       3.212   2.427  -0.193  1.00  0.00     0.037 C 
BRANCH  37  39
ATOM     39  C   UNL     1       4.374   0.345   0.560  1.00  0.00     0.323 C 
ATOM     40  O   UNL     1       4.256  -0.390   1.531  1.00  0.00    -0.250 OA
BRANCH  39  41
ATOM     41  O   UNL     1       5.567   0.785   0.044  1.00  0.00    -0.464 OA
BRANCH  41  42
ATOM     42  C   UNL     1       6.737   0.334   0.712  1.00  0.00     0.236 C 
BRANCH  42  43
ATOM     43  C   UNL     1       7.992   0.903   0.030  1.00  0.00     0.026 C 
BRANCH  43  44
ATOM     44  C   UNL     1       8.020   0.613  -1.488  1.00  0.00     0.003 C 
ATOM     45  C   UNL     1       8.092  -0.861  -1.864  1.00  0.00     0.004 C 
ENDBRANCH  43  44
BRANCH  43  46
ATOM     46  C   UNL     1       9.247   0.422   0.785  1.00  0.00     0.003 C 
ATOM     47  C   UNL     1      10.547   1.007   0.253  1.00  0.00     0.004 C 
ENDBRANCH  43  46
ENDBRANCH  42  43
ENDBRANCH  41  42
ENDBRANCH  39  41
ENDBRANCH  37  39
ENDBRANCH   1  37
TORSDOF 18
